<?xml version="1.0" encoding="UTF-8"?>

<!-- generated on 2025-04-01 14:53:44 by Eclipse SUMO GUI Version 1.21.0
<sumoConfiguration xmlns:xsi="http://www.w3.org/2001/XMLSchema-instance" xsi:noNamespaceSchemaLocation="http://sumo.dlr.de/xsd/sumoConfiguration.xsd">

    <input>
        <net-file value="C:\Users\Nguyen Minh Quan\Quan\Quan\SUMO_sim\DirectoryName\22302025\Nguyen-Van-Linh-SUMO\complex_juntion.net.xml"/>
        <route-files value="C:\Users\Nguyen Minh Quan\Quan\Quan\SUMO_sim\DirectoryName\22302025\Nguyen-Van-Linh-SUMO\complex_juntion.rou.xml"/>
    </input>

    <output>
        <emission-output value="C:\Users\Nguyen Minh Quan\Quan\Quan\SUMO_sim\DirectoryName\22302025\Nguyen-Van-Linh-SUMO\emissions_data.xml"/>
        <tripinfo-output value="C:\Users\Nguyen Minh Quan\Quan\Quan\SUMO_sim\DirectoryName\22302025\Nguyen-Van-Linh-SUMO\data.xml"/>
    </output>

    <time>
        <begin value="0"/>
        <end value="3600"/>
        <step-length value="1"/>
    </time>

    <processing>
        <lateral-resolution value="0.3"/>
        <time-to-teleport value="-1"/>
    </processing>

    <emissions>
        <device.emissions.probability value="1.0"/>
    </emissions>

</sumoConfiguration>
-->

<emission-export xmlns:xsi="http://www.w3.org/2001/XMLSchema-instance" xsi:noNamespaceSchemaLocation="http://sumo.dlr.de/xsd/emission_file.xsd">
    <timestep time="0.00">
        <vehicle id="bus18.0" eclass="HBEFA3/Bus" CO2="5286.11" CO="20.17" HC="4.85" NOx="60.75" PMx="2.01" fuel="1671.11" electricity="0.00" noise="67.11" route="!bus18.0!var#1" type="bus" waiting="0.00" lane="L5_0" pos="0.00" speed="0.00" angle="180.02" x="1390.70" y="-128.15"/>
        <vehicle id="pkw12.0" eclass="HBEFA3/PC_G_EU4" CO2="2624.72" CO="164.78" HC="0.81" NOx="1.20" PMx="0.07" fuel="837.22" electricity="0.00" noise="55.94" route="!pkw12" type="pkw" waiting="0.00" lane="L2_0" pos="0.00" speed="0.00" angle="269.96" x="1862.57" y="-415.26"/>
        <vehicle id="pkw2.0" eclass="HBEFA3/PC_G_EU4" CO2="2624.72" CO="164.78" HC="0.81" NOx="1.20" PMx="0.07" fuel="837.22" electricity="0.00" noise="55.94" route="!pkw2.0!var#1" type="pkw" waiting="0.00" lane="L27_0" pos="0.00" speed="0.00" angle="0.03" x="1507.29" y="-669.77"/>
        <vehicle id="pkw24.0" eclass="HBEFA3/PC_G_EU4" CO2="2624.72" CO="164.78" HC="0.81" NOx="1.20" PMx="0.07" fuel="837.22" electricity="0.00" noise="55.94" route="!pkw24.0!var#1" type="pkw" waiting="0.00" lane="L22_0" pos="0.00" speed="0.00" angle="179.92" x="1371.90" y="-125.63"/>
        <vehicle id="pkw30.0" eclass="HBEFA3/PC_G_EU4" CO2="2624.72" CO="164.78" HC="0.81" NOx="1.20" PMx="0.07" fuel="837.22" electricity="0.00" noise="55.94" route="!pkw30.0!var#1" type="pkw" waiting="0.00" lane="L8_0" pos="0.00" speed="0.00" angle="89.99" x="1028.42" y="-424.64"/>
        <vehicle id="pkw35.0" eclass="HBEFA3/PC_G_EU4" CO2="2624.72" CO="164.78" HC="0.81" NOx="1.20" PMx="0.07" fuel="837.22" electricity="0.00" noise="55.94" route="!pkw35" type="pkw" waiting="0.00" lane="L14_0" pos="0.00" speed="0.00" angle="359.99" x="1480.94" y="-667.24"/>
        <vehicle id="pkw36.0" eclass="HBEFA3/PC_G_EU4" CO2="2624.72" CO="164.78" HC="0.81" NOx="1.20" PMx="0.07" fuel="837.22" electricity="0.00" noise="55.94" route="!pkw36" type="pkw" waiting="0.00" lane="L13_0" pos="0.00" speed="0.00" angle="179.99" x="1414.79" y="-127.39"/>
        <vehicle id="pkw7.0" eclass="HBEFA3/PC_G_EU4" CO2="2624.72" CO="164.78" HC="0.81" NOx="1.20" PMx="0.07" fuel="837.22" electricity="0.00" noise="55.94" route="!pkw7" type="pkw" waiting="0.00" lane="L26_0" pos="0.00" speed="0.00" angle="359.93" x="1525.72" y="-670.29"/>
    </timestep>
    <timestep time="1.00">
        <vehicle id="bus18.0" eclass="HBEFA3/Bus" CO2="8040.73" CO="22.82" HC="5.21" NOx="79.33" PMx="2.31" fuel="2542.99" electricity="0.00" noise="73.64" route="!bus18.0!var#1" type="bus" waiting="0.00" lane="L5_0" pos="1.09" speed="1.09" angle="180.02" x="1390.70" y="-129.24"/>
        <vehicle id="pkw12.0" eclass="HBEFA3/PC_G_EU4" CO2="3907.57" CO="150.54" HC="0.78" NOx="1.74" PMx="0.09" fuel="1246.37" electricity="0.00" noise="67.62" route="!pkw12" type="pkw" waiting="0.00" lane="L2_0" pos="2.44" speed="2.44" angle="269.96" x="1860.13" y="-415.26"/>
        <vehicle id="pkw2.0" eclass="HBEFA3/PC_G_EU4" CO2="3614.89" CO="148.66" HC="0.76" NOx="1.61" PMx="0.08" fuel="1153.02" electricity="0.00" noise="66.36" route="!pkw2.0!var#1" type="pkw" waiting="0.00" lane="L27_0" pos="2.18" speed="2.18" angle="0.03" x="1507.29" y="-667.59"/>
        <vehicle id="pkw24.0" eclass="HBEFA3/PC_G_EU4" CO2="4009.97" CO="151.32" HC="0.78" NOx="1.79" PMx="0.09" fuel="1279.03" electricity="0.00" noise="68.03" route="!pkw24.0!var#1" type="pkw" waiting="0.00" lane="L22_0" pos="2.53" speed="2.53" angle="179.92" x="1371.90" y="-128.16"/>
        <vehicle id="pkw30.0" eclass="HBEFA3/PC_G_EU4" CO2="4077.29" CO="151.86" HC="0.79" NOx="1.82" PMx="0.09" fuel="1300.50" electricity="0.00" noise="68.29" route="!pkw30.0!var#1" type="pkw" waiting="0.00" lane="L8_0" pos="2.58" speed="2.58" angle="89.99" x="1031.00" y="-424.64"/>
        <vehicle id="pkw35.0" eclass="HBEFA3/PC_G_EU4" CO2="3808.25" CO="149.84" HC="0.77" NOx="1.70" PMx="0.08" fuel="1214.69" electricity="0.00" noise="67.21" route="!pkw35" type="pkw" waiting="0.00" lane="L14_0" pos="2.35" speed="2.35" angle="359.99" x="1480.94" y="-664.89"/>
        <vehicle id="pkw36.0" eclass="HBEFA3/PC_G_EU4" CO2="4048.70" CO="151.63" HC="0.79" NOx="1.81" PMx="0.09" fuel="1291.38" electricity="0.00" noise="68.18" route="!pkw36" type="pkw" waiting="0.00" lane="L13_0" pos="2.56" speed="2.56" angle="179.99" x="1414.79" y="-129.95"/>
        <vehicle id="pkw7.0" eclass="HBEFA3/PC_G_EU4" CO2="3851.44" CO="150.13" HC="0.77" NOx="1.72" PMx="0.09" fuel="1228.47" electricity="0.00" noise="67.39" route="!pkw7" type="pkw" waiting="0.00" lane="L26_0" pos="2.39" speed="2.39" angle="359.93" x="1525.72" y="-667.90"/>
    </timestep>
    <timestep time="2.00">
        <vehicle id="bus18.0" eclass="HBEFA3/Bus" CO2="10973.40" CO="25.66" HC="5.58" NOx="99.15" PMx="2.63" fuel="3471.21" electricity="0.00" noise="74.27" route="!bus18.0!var#1" type="bus" waiting="0.00" lane="L5_0" pos="3.29" speed="2.20" angle="180.02" x="1390.70" y="-131.44"/>
        <vehicle id="bus30.0" eclass="HBEFA3/Bus" CO2="5286.11" CO="20.17" HC="4.85" NOx="60.75" PMx="2.01" fuel="1671.11" electricity="0.00" noise="67.11" route="!bus30.0!var#1" type="bus" waiting="0.00" lane="L8_0" pos="0.00" speed="0.00" angle="89.99" x="1028.42" y="-424.64"/>
        <vehicle id="pkw12.0" eclass="HBEFA3/PC_G_EU4" CO2="5145.89" CO="141.38" HC="0.77" NOx="2.26" PMx="0.11" fuel="1641.32" electricity="0.00" noise="68.27" route="!pkw12" type="pkw" waiting="0.00" lane="L2_0" pos="7.25" speed="4.81" angle="269.96" x="1855.32" y="-415.27"/>
        <vehicle id="pkw2.0" eclass="HBEFA3/PC_G_EU4" CO2="4588.31" CO="136.95" HC="0.73" NOx="2.01" PMx="0.10" fuel="1463.48" electricity="0.00" noise="66.99" route="!pkw2.0!var#1" type="pkw" waiting="0.00" lane="L27_0" pos="6.48" speed="4.30" angle="0.03" x="1507.29" y="-663.29"/>
        <vehicle id="pkw24.0" eclass="HBEFA3/PC_G_EU4" CO2="4797.37" CO="136.10" HC="0.73" NOx="2.10" PMx="0.10" fuel="1530.16" electricity="0.00" noise="67.24" route="!pkw24.0!var#1" type="pkw" waiting="0.00" lane="L22_0" pos="7.19" speed="4.67" angle="179.92" x="1371.91" y="-132.82"/>
        <vehicle id="pkw30.0" eclass="HBEFA3/PC_G_EU4" CO2="5370.78" CO="143.06" HC="0.78" NOx="2.36" PMx="0.11" fuel="1713.04" electricity="0.00" noise="68.70" route="!pkw30.0!var#1" type="pkw" waiting="0.00" lane="L8_0" pos="7.60" speed="5.02" angle="89.99" x="1036.02" y="-424.64"/>
        <vehicle id="pkw35.0" eclass="HBEFA3/PC_G_EU4" CO2="4736.61" CO="137.01" HC="0.74" NOx="2.08" PMx="0.10" fuel="1510.78" electricity="0.00" noise="67.24" route="!pkw35" type="pkw" waiting="0.00" lane="L14_0" pos="6.87" speed="4.51" angle="359.99" x="1480.94" y="-660.37"/>
        <vehicle id="pkw36.0" eclass="HBEFA3/PC_G_EU4" CO2="5101.26" CO="139.70" HC="0.76" NOx="2.24" PMx="0.11" fuel="1627.08" electricity="0.00" noise="68.03" route="!pkw36" type="pkw" waiting="0.00" lane="L13_0" pos="7.42" speed="4.86" angle="179.99" x="1414.79" y="-134.81"/>
        <vehicle id="pkw7.0" eclass="HBEFA3/PC_G_EU4" CO2="5539.50" CO="147.07" HC="0.80" NOx="2.44" PMx="0.12" fuel="1766.86" electricity="0.00" noise="69.33" route="!pkw7" type="pkw" waiting="0.00" lane="L26_0" pos="7.38" speed="4.98" angle="359.93" x="1525.71" y="-662.91"/>
        <vehicle id="scooter24.0" eclass="HBEFA4/MC_4S_le250cc_Euro-4" CO2="228.50" CO="0.00" HC="0.00" NOx="0.00" PMx="0.24" fuel="74.08" electricity="0.00" noise="55.94" route="!scooter24.0!var#1" type="scooter" waiting="0.00" lane="L22_0" pos="0.00" speed="0.00" angle="179.92" x="1371.90" y="-125.63"/>
    </timestep>
    <timestep time="3.00">
        <vehicle id="bus12.0" eclass="HBEFA3/Bus" CO2="5286.11" CO="20.17" HC="4.85" NOx="60.75" PMx="2.01" fuel="1671.11" electricity="0.00" noise="67.11" route="!bus12" type="bus" waiting="0.00" lane="L2_0" pos="0.00" speed="0.00" angle="269.96" x="1862.57" y="-415.26"/>
        <vehicle id="bus18.0" eclass="HBEFA3/Bus" CO2="13883.03" CO="28.48" HC="5.96" NOx="118.81" PMx="2.95" fuel="4392.15" electricity="0.00" noise="74.80" route="!bus18.0!var#1" type="bus" waiting="0.00" lane="L5_0" pos="6.61" speed="3.32" angle="180.02" x="1390.70" y="-134.76"/>
        <vehicle id="bus2.0" eclass="HBEFA3/Bus" CO2="5286.11" CO="20.17" HC="4.85" NOx="60.75" PMx="2.01" fuel="1671.11" electricity="0.00" noise="67.11" route="!bus2.0!var#1" type="bus" waiting="0.00" lane="L27_0" pos="0.00" speed="0.00" angle="0.03" x="1507.29" y="-669.77"/>
        <vehicle id="bus30.0" eclass="HBEFA3/Bus" CO2="6291.64" CO="21.04" HC="4.98" NOx="67.33" PMx="2.11" fuel="1989.41" electricity="0.00" noise="70.74" route="!bus30.0!var#1" type="bus" waiting="0.00" lane="L8_0" pos="0.60" speed="0.60" angle="89.99" x="1029.02" y="-424.64"/>
        <vehicle id="bus35.0" eclass="HBEFA3/Bus" CO2="5286.11" CO="20.17" HC="4.85" NOx="60.75" PMx="2.01" fuel="1671.11" electricity="0.00" noise="67.11" route="!bus35" type="bus" waiting="0.00" lane="L14_0" pos="0.00" speed="0.00" angle="359.99" x="1480.94" y="-667.24"/>
        <vehicle id="bus7.0" eclass="HBEFA3/Bus" CO2="5286.11" CO="20.17" HC="4.85" NOx="60.75" PMx="2.01" fuel="1671.11" electricity="0.00" noise="67.11" route="!bus7" type="bus" waiting="0.00" lane="L26_0" pos="0.00" speed="0.00" angle="359.93" x="1525.72" y="-670.29"/>
        <vehicle id="pkw12.0" eclass="HBEFA3/PC_G_EU4" CO2="7102.48" CO="149.02" HC="0.85" NOx="3.12" PMx="0.15" fuel="2265.36" electricity="0.00" noise="70.41" route="!pkw12" type="pkw" waiting="0.00" lane="L2_0" pos="14.65" speed="7.40" angle="269.96" x="1847.92" y="-415.27"/>
        <vehicle id="pkw2.0" eclass="HBEFA3/PC_G_EU4" CO2="6243.95" CO="139.92" HC="0.79" NOx="2.73" PMx="0.13" fuel="1991.53" electricity="0.00" noise="69.14" route="!pkw2.0!var#1" type="pkw" waiting="0.00" lane="L27_0" pos="13.15" speed="6.67" angle="0.03" x="1507.30" y="-656.62"/>
        <vehicle id="pkw24.0" eclass="HBEFA3/PC_G_EU4" CO2="6850.02" CO="146.16" HC="0.83" NOx="3.00" PMx="0.14" fuel="2184.84" electricity="0.00" noise="70.05" route="!pkw24.0!var#1" type="pkw" waiting="0.00" lane="L22_0" pos="14.39" speed="7.20" angle="179.92" x="1371.92" y="-140.02"/>
        <vehicle id="pkw30.0" eclass="HBEFA3/PC_G_EU4" CO2="7063.75" CO="146.54" HC="0.84" NOx="3.10" PMx="0.15" fuel="2253.01" electricity="0.00" noise="70.18" route="!pkw30.0!var#1" type="pkw" waiting="0.00" lane="L8_0" pos="15.15" speed="7.55" angle="89.99" x="1043.57" y="-424.64"/>
        <vehicle id="pkw35.0" eclass="HBEFA3/PC_G_EU4" CO2="6340.61" CO="139.49" HC="0.79" NOx="2.77" PMx="0.13" fuel="2022.36" electricity="0.00" noise="69.18" route="!pkw35" type="pkw" waiting="0.00" lane="L14_0" pos="13.74" speed="6.88" angle="359.99" x="1480.94" y="-653.50"/>
        <vehicle id="pkw36.0" eclass="HBEFA3/PC_G_EU4" CO2="7097.88" CO="148.47" HC="0.85" NOx="3.11" PMx="0.15" fuel="2263.89" electricity="0.00" noise="70.36" route="!pkw36" type="pkw" waiting="0.00" lane="L13_0" pos="14.86" speed="7.44" angle="179.99" x="1414.79" y="-142.25"/>
        <vehicle id="pkw36.1" eclass="HBEFA3/PC_G_EU4" CO2="2624.72" CO="164.78" HC="0.81" NOx="1.20" PMx="0.07" fuel="837.22" electricity="0.00" noise="55.94" route="!pkw36" type="pkw" waiting="0.00" lane="L13_0" pos="0.00" speed="0.00" angle="179.99" x="1414.79" y="-127.39"/>
        <vehicle id="pkw7.0" eclass="HBEFA3/PC_G_EU4" CO2="5989.55" CO="129.75" HC="0.73" NOx="2.60" PMx="0.12" fuel="1910.39" electricity="0.00" noise="68.16" route="!pkw7" type="pkw" waiting="0.00" lane="L26_0" pos="14.47" speed="7.09" angle="359.93" x="1525.70" y="-655.82"/>
        <vehicle id="scooter24.0" eclass="HBEFA4/MC_4S_le250cc_Euro-4" CO2="565.54" CO="0.21" HC="0.02" NOx="0.65" PMx="0.48" fuel="183.31" electricity="0.00" noise="63.63" route="!scooter24.0!var#1" type="scooter" waiting="0.00" lane="L22_0" pos="1.61" speed="1.61" angle="179.92" x="1371.90" y="-127.24"/>
    </timestep>
    <timestep time="4.00">
        <vehicle id="bus12.0" eclass="HBEFA3/Bus" CO2="8274.49" CO="23.07" HC="5.24" NOx="80.95" PMx="2.33" fuel="2616.97" electricity="0.00" noise="73.94" route="!bus12" type="bus" waiting="0.00" lane="L2_0" pos="1.14" speed="1.14" angle="269.96" x="1861.43" y="-415.26"/>
        <vehicle id="bus18.0" eclass="HBEFA3/Bus" CO2="16939.05" CO="31.46" HC="6.35" NOx="139.50" PMx="3.28" fuel="5359.41" electricity="0.00" noise="75.44" route="!bus18.0!var#1" type="bus" waiting="0.00" lane="L5_0" pos="11.07" speed="4.46" angle="180.02" x="1390.70" y="-139.22"/>
        <vehicle id="bus2.0" eclass="HBEFA3/Bus" CO2="8183.64" CO="22.97" HC="5.22" NOx="80.32" PMx="2.32" fuel="2588.22" electricity="0.00" noise="73.83" route="!bus2.0!var#1" type="bus" waiting="0.00" lane="L27_0" pos="1.12" speed="1.12" angle="0.03" x="1507.29" y="-668.65"/>
        <vehicle id="bus30.0" eclass="HBEFA3/Bus" CO2="9792.76" CO="24.53" HC="5.43" NOx="91.20" PMx="2.50" fuel="3097.52" electricity="0.00" noise="74.13" route="!bus30.0!var#1" type="bus" waiting="0.00" lane="L8_0" pos="2.34" speed="1.73" angle="86.17" x="1030.76" y="-423.64"/>
        <vehicle id="bus35.0" eclass="HBEFA3/Bus" CO2="8047.47" CO="22.83" HC="5.21" NOx="79.38" PMx="2.31" fuel="2545.12" electricity="0.00" noise="73.65" route="!bus35" type="bus" waiting="0.00" lane="L14_0" pos="1.09" speed="1.09" angle="359.99" x="1480.94" y="-666.15"/>
        <vehicle id="bus7.0" eclass="HBEFA3/Bus" CO2="8419.44" CO="23.22" HC="5.25" NOx="81.95" PMx="2.35" fuel="2662.84" electricity="0.00" noise="74.13" route="!bus7" type="bus" waiting="0.00" lane="L26_0" pos="1.17" speed="1.17" angle="359.93" x="1525.72" y="-669.12"/>
        <vehicle id="pkw12.0" eclass="HBEFA3/PC_G_EU4" CO2="8337.12" CO="148.98" HC="0.88" NOx="3.64" PMx="0.18" fuel="2659.14" electricity="0.00" noise="70.83" route="!pkw12" type="pkw" waiting="0.00" lane="L2_0" pos="24.48" speed="9.83" angle="269.96" x="1838.09" y="-415.28"/>
        <vehicle id="pkw2.0" eclass="HBEFA3/PC_G_EU4" CO2="7140.22" CO="133.93" HC="0.78" NOx="3.10" PMx="0.15" fuel="2277.39" electricity="0.00" noise="69.34" route="!pkw2.0!var#1" type="pkw" waiting="0.00" lane="L27_0" pos="22.01" speed="8.86" angle="0.03" x="1507.30" y="-647.76"/>
        <vehicle id="pkw24.0" eclass="HBEFA3/PC_G_EU4" CO2="7723.65" CO="139.77" HC="0.82" NOx="3.36" PMx="0.16" fuel="2463.47" electricity="0.00" noise="70.01" route="!pkw24.0!var#1" type="pkw" waiting="0.00" lane="L22_0" pos="23.87" speed="9.48" angle="179.92" x="1371.93" y="-149.50"/>
        <vehicle id="pkw25.0" eclass="HBEFA3/PC_G_EU4" CO2="2624.72" CO="164.78" HC="0.81" NOx="1.20" PMx="0.07" fuel="837.22" electricity="0.00" noise="55.94" route="!pkw25.0!var#1" type="pkw" waiting="0.00" lane="L22_0" pos="0.00" speed="0.00" angle="179.92" x="1371.90" y="-125.63"/>
        <vehicle id="pkw30.0" eclass="HBEFA3/PC_G_EU4" CO2="8103.95" CO="143.75" HC="0.85" NOx="3.53" PMx="0.17" fuel="2584.77" electricity="0.00" noise="70.42" route="!pkw30.0!var#1" type="pkw" waiting="0.00" lane="L8_0" pos="25.03" speed="9.88" angle="89.99" x="1053.45" y="-424.64"/>
        <vehicle id="pkw35.0" eclass="HBEFA3/PC_G_EU4" CO2="7160.78" CO="132.63" HC="0.77" NOx="3.10" PMx="0.15" fuel="2283.95" electricity="0.00" noise="69.28" route="!pkw35" type="pkw" waiting="0.00" lane="L14_0" pos="22.77" speed="9.03" angle="359.99" x="1480.94" y="-644.47"/>
        <vehicle id="pkw36.0" eclass="HBEFA3/PC_G_EU4" CO2="8411.59" CO="150.00" HC="0.89" NOx="3.67" PMx="0.18" fuel="2682.89" electricity="0.00" noise="70.92" route="!pkw36" type="pkw" waiting="0.00" lane="L13_0" pos="24.75" speed="9.89" angle="179.99" x="1414.79" y="-152.14"/>
        <vehicle id="pkw36.1" eclass="HBEFA3/PC_G_EU4" CO2="4020.32" CO="151.40" HC="0.78" NOx="1.79" PMx="0.09" fuel="1282.33" electricity="0.00" noise="68.07" route="!pkw36" type="pkw" waiting="0.00" lane="L13_0" pos="2.53" speed="2.53" angle="179.99" x="1414.79" y="-129.92"/>
        <vehicle id="pkw7.0" eclass="HBEFA3/PC_G_EU4" CO2="6677.70" CO="122.62" HC="0.72" NOx="2.87" PMx="0.13" fuel="2129.87" electricity="0.00" noise="68.41" route="!pkw7" type="pkw" waiting="0.00" lane="L26_0" pos="23.50" speed="9.04" angle="359.93" x="1525.69" y="-646.79"/>
        <vehicle id="scooter24.0" eclass="HBEFA4/MC_4S_le250cc_Euro-4" CO2="832.46" CO="2.32" HC="0.15" NOx="1.07" PMx="0.64" fuel="269.82" electricity="0.00" noise="68.75" route="!scooter24.0!var#1" type="scooter" waiting="0.00" lane="L22_0" pos="5.76" speed="4.15" angle="179.92" x="1371.91" y="-131.39"/>
    </timestep>
    <timestep time="5.00">
        <vehicle id="bike30.0" eclass="Zero/default" CO2="0.00" CO="0.00" HC="0.00" NOx="0.00" PMx="0.00" fuel="0.00" electricity="0.00" noise="0.00" route="!bike30.0!var#1" type="bike" waiting="0.00" lane="L8_0" pos="0.00" speed="0.00" angle="89.99" x="1028.42" y="-424.64"/>
        <vehicle id="bus12.0" eclass="HBEFA3/Bus" CO2="11010.97" CO="25.69" HC="5.59" NOx="99.39" PMx="2.63" fuel="3483.11" electricity="0.00" noise="74.21" route="!bus12" type="bus" waiting="0.00" lane="L2_0" pos="3.38" speed="2.24" angle="269.96" x="1859.19" y="-415.26"/>
        <vehicle id="bus18.0" eclass="HBEFA3/Bus" CO2="19368.07" CO="33.73" HC="6.67" NOx="155.75" PMx="3.54" fuel="6128.25" electricity="0.00" noise="75.76" route="!bus18.0!var#1" type="bus" waiting="0.00" lane="L5_0" pos="16.62" speed="5.55" angle="180.02" x="1390.70" y="-144.77"/>
        <vehicle id="bus2.0" eclass="HBEFA3/Bus" CO2="11437.80" CO="26.16" HC="5.64" NOx="102.38" PMx="2.68" fuel="3618.18" electricity="0.00" noise="74.63" route="!bus2.0!var#1" type="bus" waiting="0.00" lane="L27_0" pos="3.41" speed="2.29" angle="0.03" x="1507.29" y="-666.36"/>
        <vehicle id="bus30.0" eclass="HBEFA3/Bus" CO2="12514.81" CO="27.14" HC="5.78" NOx="109.53" PMx="2.79" fuel="3959.09" electricity="0.00" noise="74.47" route="!bus30.0!var#1" type="bus" waiting="0.00" lane="L8_1" pos="5.17" speed="2.83" angle="83.08" x="1033.59" y="-422.64"/>
        <vehicle id="bus35.0" eclass="HBEFA3/Bus" CO2="11330.72" CO="26.05" HC="5.63" NOx="101.65" PMx="2.67" fuel="3584.29" electricity="0.00" noise="74.59" route="!bus35" type="bus" waiting="0.00" lane="L14_0" pos="3.35" speed="2.26" angle="356.17" x="1479.94" y="-663.89"/>
        <vehicle id="bus7.0" eclass="HBEFA3/Bus" CO2="11404.01" CO="26.11" HC="5.64" NOx="102.11" PMx="2.68" fuel="3607.50" electricity="0.00" noise="74.50" route="!bus7" type="bus" waiting="0.00" lane="L26_0" pos="3.49" speed="2.32" angle="356.11" x="1524.72" y="-666.80"/>
        <vehicle id="pkw12.0" eclass="HBEFA3/PC_G_EU4" CO2="10177.73" CO="165.99" HC="1.00" NOx="4.44" PMx="0.22" fuel="3246.19" electricity="0.00" noise="72.23" route="!pkw12" type="pkw" waiting="0.00" lane="L2_0" pos="36.79" speed="12.31" angle="269.96" x="1825.78" y="-415.29"/>
        <vehicle id="pkw2.0" eclass="HBEFA3/PC_G_EU4" CO2="8690.75" CO="144.80" HC="0.87" NOx="3.77" PMx="0.18" fuel="2771.92" electricity="0.00" noise="70.72" route="!pkw2.0!var#1" type="pkw" waiting="0.00" lane="L27_0" pos="33.13" speed="11.12" angle="0.03" x="1507.31" y="-636.64"/>
        <vehicle id="pkw24.0" eclass="HBEFA3/PC_G_EU4" CO2="9334.43" CO="152.52" HC="0.92" NOx="4.06" PMx="0.20" fuel="2977.22" electricity="0.00" noise="71.33" route="!pkw24.0!var#1" type="pkw" waiting="0.00" lane="L22_0" pos="35.67" speed="11.80" angle="179.92" x="1371.95" y="-161.30"/>
        <vehicle id="pkw25.0" eclass="HBEFA3/PC_G_EU4" CO2="2868.34" CO="148.78" HC="0.74" NOx="1.29" PMx="0.07" fuel="914.92" electricity="0.00" noise="61.79" route="!pkw25.0!var#1" type="pkw" waiting="0.00" lane="L22_0" pos="1.22" speed="1.22" angle="168.38" x="1372.90" y="-126.85"/>
        <vehicle id="pkw30.0" eclass="HBEFA3/PC_G_EU4" CO2="9391.24" CO="151.03" HC="0.91" NOx="4.08" PMx="0.20" fuel="2995.34" electricity="0.00" noise="71.27" route="!pkw30.0!var#1" type="pkw" waiting="0.00" lane="L8_0" pos="37.18" speed="12.15" angle="89.99" x="1065.60" y="-424.64"/>
        <vehicle id="pkw35.0" eclass="HBEFA3/PC_G_EU4" CO2="3432.46" CO="50.58" HC="0.31" NOx="1.33" PMx="0.05" fuel="1094.81" electricity="0.00" noise="63.20" route="!pkw35" type="pkw" waiting="0.00" lane="L14_0" pos="32.34" speed="9.56" angle="359.99" x="1480.93" y="-634.90"/>
        <vehicle id="pkw36.0" eclass="HBEFA3/PC_G_EU4" CO2="10127.38" CO="164.71" HC="0.99" NOx="4.42" PMx="0.22" fuel="3230.13" electricity="0.00" noise="72.15" route="!pkw36" type="pkw" waiting="0.00" lane="L13_0" pos="37.09" speed="12.34" angle="179.99" x="1414.79" y="-164.48"/>
        <vehicle id="pkw36.1" eclass="HBEFA3/PC_G_EU4" CO2="4919.70" CO="137.57" HC="0.74" NOx="2.16" PMx="0.10" fuel="1569.18" electricity="0.00" noise="67.57" route="!pkw36" type="pkw" waiting="0.00" lane="L13_0" pos="7.28" speed="4.74" angle="179.99" x="1414.79" y="-134.67"/>
        <vehicle id="pkw7.0" eclass="HBEFA3/PC_G_EU4" CO2="1583.89" CO="20.00" HC="0.12" NOx="0.48" PMx="0.00" fuel="505.22" electricity="0.00" noise="60.24" route="!pkw7" type="pkw" waiting="0.00" lane="L26_0" pos="32.32" speed="8.81" angle="359.93" x="1525.68" y="-637.97"/>
        <vehicle id="scooter24.0" eclass="HBEFA4/MC_4S_le250cc_Euro-4" CO2="574.68" CO="2.07" HC="0.18" NOx="0.60" PMx="0.44" fuel="186.28" electricity="0.00" noise="63.42" route="!scooter24.0!var#1" type="scooter" waiting="0.00" lane="L22_0" pos="11.09" speed="5.33" angle="179.92" x="1371.92" y="-136.72"/>
    </timestep>
    <timestep time="6.00">
        <vehicle id="bike30.0" eclass="Zero/default" CO2="0.00" CO="0.00" HC="0.00" NOx="0.00" PMx="0.00" fuel="0.00" electricity="0.00" noise="0.00" route="!bike30.0!var#1" type="bike" waiting="0.00" lane="L8_0" pos="0.57" speed="0.57" angle="123.74" x="1028.99" y="-425.64"/>
        <vehicle id="bike7.0" eclass="Zero/default" CO2="0.00" CO="0.00" HC="0.00" NOx="0.00" PMx="0.00" fuel="0.00" electricity="0.00" noise="0.00" route="!bike7" type="bike" waiting="0.00" lane="L26_0" pos="0.00" speed="0.00" angle="359.93" x="1525.72" y="-670.29"/>
        <vehicle id="bus12.0" eclass="HBEFA3/Bus" CO2="14272.48" CO="28.89" HC="6.01" NOx="121.52" PMx="2.99" fuel="4515.40" electricity="0.00" noise="75.03" route="!bus12" type="bus" waiting="0.00" lane="L2_0" pos="6.77" speed="3.39" angle="269.96" x="1855.80" y="-415.26"/>
        <vehicle id="bus18.0" eclass="HBEFA3/Bus" CO2="23045.04" CO="37.41" HC="7.14" NOx="180.84" PMx="3.95" fuel="7292.01" electricity="0.00" noise="76.71" route="!bus18.0!var#1" type="bus" waiting="0.00" lane="L5_0" pos="23.32" speed="6.70" angle="180.02" x="1390.69" y="-151.47"/>
        <vehicle id="bus2.0" eclass="HBEFA3/Bus" CO2="14448.18" CO="29.07" HC="6.03" NOx="122.72" PMx="3.01" fuel="4571.01" electricity="0.00" noise="75.08" route="!bus2.0!var#1" type="bus" waiting="0.00" lane="L27_0" pos="6.86" speed="3.45" angle="0.03" x="1507.29" y="-662.91"/>
        <vehicle id="bus30.0" eclass="HBEFA3/Bus" CO2="16290.45" CO="30.91" HC="6.27" NOx="135.29" PMx="3.22" fuel="5154.09" electricity="0.00" noise="75.58" route="!bus30.0!var#1" type="bus" waiting="0.00" lane="L8_1" pos="9.20" speed="4.03" angle="81.14" x="1037.62" y="-421.64"/>
        <vehicle id="bus35.0" eclass="HBEFA3/Bus" CO2="14393.63" CO="29.02" HC="6.03" NOx="122.36" PMx="3.00" fuel="4553.74" electricity="0.00" noise="75.08" route="!bus35" type="bus" waiting="0.00" lane="L14_1" pos="6.77" speed="3.42" angle="353.22" x="1478.94" y="-660.47"/>
        <vehicle id="bus7.0" eclass="HBEFA3/Bus" CO2="14046.66" CO="28.62" HC="5.98" NOx="119.88" PMx="2.96" fuel="4443.94" electricity="0.00" noise="74.77" route="!bus7" type="bus" waiting="0.00" lane="L26_1" pos="6.91" speed="3.42" angle="353.17" x="1523.71" y="-663.38"/>
        <vehicle id="pkw12.0" eclass="HBEFA3/PC_G_EU4" CO2="11005.91" CO="168.45" HC="1.03" NOx="4.78" PMx="0.24" fuel="3510.33" electricity="0.00" noise="72.46" route="!pkw12" type="pkw" waiting="0.00" lane="L2_0" pos="51.37" speed="14.58" angle="269.96" x="1811.20" y="-415.30"/>
        <vehicle id="pkw2.0" eclass="HBEFA3/PC_G_EU4" CO2="11023.24" CO="174.71" HC="1.06" NOx="4.81" PMx="0.24" fuel="3515.86" electricity="0.00" noise="72.77" route="!pkw2.0!var#1" type="pkw" waiting="0.00" lane="L27_0" pos="46.71" speed="13.58" angle="0.03" x="1507.31" y="-623.06"/>
        <vehicle id="pkw20.0" eclass="HBEFA3/PC_G_EU4" CO2="2624.72" CO="164.78" HC="0.81" NOx="1.20" PMx="0.07" fuel="837.22" electricity="0.00" noise="55.94" route="!pkw20.0!var#1" type="pkw" waiting="0.00" lane="L5_0" pos="0.00" speed="0.00" angle="180.02" x="1390.70" y="-128.15"/>
        <vehicle id="pkw24.0" eclass="HBEFA3/PC_G_EU4" CO2="11554.84" CO="181.48" HC="1.11" NOx="5.04" PMx="0.25" fuel="3685.41" electricity="0.00" noise="73.14" route="!pkw24.0!var#1" type="pkw" waiting="0.00" lane="L22_0" pos="49.94" speed="14.27" angle="179.92" x="1371.97" y="-175.57"/>
        <vehicle id="pkw25.0" eclass="HBEFA3/PC_G_EU4" CO2="4457.28" CO="144.60" HC="0.76" NOx="1.97" PMx="0.10" fuel="1421.69" electricity="0.00" noise="67.70" route="!pkw25.0!var#1" type="pkw" waiting="0.00" lane="L22_1" pos="4.80" speed="3.58" angle="165.36" x="1373.91" y="-130.43"/>
        <vehicle id="pkw30.0" eclass="HBEFA3/PC_G_EU4" CO2="3441.00" CO="25.79" HC="0.20" NOx="1.26" PMx="0.04" fuel="1097.53" electricity="0.00" noise="64.60" route="!pkw30.0!var#1" type="pkw" waiting="0.00" lane="L8_0" pos="49.70" speed="12.52" angle="89.99" x="1078.12" y="-424.63"/>
        <vehicle id="pkw35.0" eclass="HBEFA3/PC_G_EU4" CO2="2532.97" CO="30.44" HC="0.19" NOx="0.90" PMx="0.02" fuel="807.92" electricity="0.00" noise="62.10" route="!pkw35" type="pkw" waiting="0.00" lane="L14_0" pos="42.07" speed="9.73" angle="359.99" x="1480.93" y="-625.17"/>
        <vehicle id="pkw36.0" eclass="HBEFA3/PC_G_EU4" CO2="9826.22" CO="145.50" HC="0.90" NOx="4.23" PMx="0.21" fuel="3134.07" electricity="0.00" noise="71.26" route="!pkw36" type="pkw" waiting="0.00" lane="L13_0" pos="51.43" speed="14.34" angle="179.99" x="1414.80" y="-178.82"/>
        <vehicle id="pkw36.1" eclass="HBEFA3/PC_G_EU4" CO2="6718.28" CO="143.39" HC="0.81" NOx="2.94" PMx="0.14" fuel="2142.82" electricity="0.00" noise="69.74" route="!pkw36" type="pkw" waiting="0.00" lane="L13_0" pos="14.48" speed="7.21" angle="179.99" x="1414.79" y="-141.87"/>
        <vehicle id="pkw36.2" eclass="HBEFA3/PC_G_EU4" CO2="2624.72" CO="164.78" HC="0.81" NOx="1.20" PMx="0.07" fuel="837.22" electricity="0.00" noise="55.94" route="!pkw36" type="pkw" waiting="0.00" lane="L13_0" pos="0.00" speed="0.00" angle="179.99" x="1414.79" y="-127.39"/>
        <vehicle id="pkw7.0" eclass="HBEFA3/PC_G_EU4" CO2="1966.24" CO="28.44" HC="0.17" NOx="0.66" PMx="0.01" fuel="627.16" electricity="0.00" noise="60.71" route="!pkw7" type="pkw" waiting="0.00" lane="L26_0" pos="41.08" speed="8.76" angle="359.93" x="1525.67" y="-629.21"/>
        <vehicle id="scooter24.0" eclass="HBEFA4/MC_4S_le250cc_Euro-4" CO2="953.02" CO="7.59" HC="0.45" NOx="1.07" PMx="0.63" fuel="308.90" electricity="0.00" noise="69.08" route="!scooter24.0!var#1" type="scooter" waiting="0.00" lane="L22_0" pos="18.69" speed="7.60" angle="179.92" x="1371.93" y="-144.32"/>
        <vehicle id="scooter25.0" eclass="HBEFA4/MC_4S_le250cc_Euro-4" CO2="228.50" CO="0.00" HC="0.00" NOx="0.00" PMx="0.24" fuel="74.08" electricity="0.00" noise="55.94" route="!scooter25.0!var#1" type="scooter" waiting="0.00" lane="L22_0" pos="0.00" speed="0.00" angle="179.92" x="1371.90" y="-125.63"/>
    </timestep>
    <timestep time="7.00">
        <vehicle id="bike25.0" eclass="Zero/default" CO2="0.00" CO="0.00" HC="0.00" NOx="0.00" PMx="0.00" fuel="0.00" electricity="0.00" noise="0.00" route="!bike25.0!var#1" type="bike" waiting="0.00" lane="L22_0" pos="0.00" speed="0.00" angle="179.92" x="1371.90" y="-125.63"/>
        <vehicle id="bike30.0" eclass="Zero/default" CO2="0.00" CO="0.00" HC="0.00" NOx="0.00" PMx="0.00" fuel="0.00" electricity="0.00" noise="0.00" route="!bike30.0!var#1" type="bike" waiting="0.00" lane="L8_0" pos="1.75" speed="1.17" angle="112.21" x="1030.17" y="-425.99"/>
        <vehicle id="bike7.0" eclass="Zero/default" CO2="0.00" CO="0.00" HC="0.00" NOx="0.00" PMx="0.00" fuel="0.00" electricity="0.00" noise="0.00" route="!bike7" type="bike" waiting="0.00" lane="L26_0" pos="0.46" speed="0.46" angle="33.68" x="1526.72" y="-669.83"/>
        <vehicle id="bus12.0" eclass="HBEFA3/Bus" CO2="16611.59" CO="31.07" HC="6.31" NOx="137.14" PMx="3.24" fuel="5255.79" electricity="0.00" noise="75.19" route="!bus12" type="bus" waiting="0.00" lane="L2_0" pos="11.25" speed="4.48" angle="269.96" x="1851.32" y="-415.27"/>
        <vehicle id="bus18.0" eclass="HBEFA3/Bus" CO2="26735.82" CO="41.10" HC="7.62" NOx="206.00" PMx="4.36" fuel="8460.15" electricity="0.00" noise="77.56" route="!bus18.0!var#1" type="bus" waiting="0.00" lane="L5_0" pos="31.21" speed="7.89" angle="180.02" x="1390.69" y="-159.36"/>